<?xml version="1.0" encoding="UTF-8"?>

<!-- generated on 2023-09-06 13:17:10 by Eclipse SUMO sumo Version 1.18.0
<configuration xmlns:xsi="http://www.w3.org/2001/XMLSchema-instance" xsi:noNamespaceSchemaLocation="http://sumo.dlr.de/xsd/sumoConfiguration.xsd">

    <input>
        <net-file value="D:\ASTGCN-master\data\gunes_kcetas\gunes_kcetas\gunes_kcetas.net.xml"/>
        <route-files value="D:\ASTGCN-master\data\gunes_kcetas\gunes_kcetas\gunes_kcetas_morning.rou.xml"/>
    </input>

    <output>
        <summary-output value="D:\ASTGCN-master\data\gunes_kcetas\gunes_kcetas\summary.xml"/>
        <tripinfo-output value="sumo_data/tripinfo.xml"/>
    </output>

    <time>
        <begin value="0"/>
    </time>

    <processing>
        <waiting-time-memory value="5000"/>
    </processing>

    <report>
        <no-warnings value="false"/>
        <duration-log.disable value="false"/>
        <no-step-log value="false"/>
    </report>

</configuration>
-->

<tripinfos xmlns:xsi="http://www.w3.org/2001/XMLSchema-instance" xsi:noNamespaceSchemaLocation="http://sumo.dlr.de/xsd/tripinfo_file.xsd">
    <tripinfo id="49" depart="4.00" departLane="GH_C_0" departPos="4.10" departSpeed="0.00" departDelay="0.00" arrival="40.00" arrivalLane="GH_F_0" arrivalPos="30.00" arrivalSpeed="13.87" duration="36.00" routeLength="439.37" waitingTime="0.00" waitingCount="0" stopTime="0.00" timeLoss="5.16" rerouteNo="0" devices="tripinfo_49" vType="veh1" speedFactor="1.05" vaporized=""/>
    <tripinfo id="14" depart="8.00" departLane="GH_A1_0" departPos="4.10" departSpeed="0.00" departDelay="0.00" arrival="45.00" arrivalLane="KL_G1_0" arrivalPos="30.00" arrivalSpeed="14.03" duration="37.00" routeLength="422.84" waitingTime="0.00" waitingCount="0" stopTime="0.00" timeLoss="6.37" rerouteNo="0" devices="tripinfo_14" vType="veh1" speedFactor="1.03" vaporized=""/>
    <tripinfo id="8683" depart="20.00" departLane="YB_C_0" departPos="4.10" departSpeed="0.00" departDelay="0.00" arrival="54.00" arrivalLane="KC_E1_0" arrivalPos="30.00" arrivalSpeed="15.47" duration="34.00" routeLength="426.29" waitingTime="0.00" waitingCount="0" stopTime="0.00" timeLoss="6.74" rerouteNo="0" devices="tripinfo_8683" vType="veh1" speedFactor="1.18" vaporized=""/>
    <tripinfo id="56" depart="13.00" departLane="GH_C_0" departPos="4.10" departSpeed="0.00" departDelay="0.00" arrival="56.00" arrivalLane="GH_F_0" arrivalPos="30.00" arrivalSpeed="10.66" duration="43.00" routeLength="439.37" waitingTime="0.00" waitingCount="0" stopTime="0.00" timeLoss="4.63" rerouteNo="0" devices="tripinfo_56" vType="veh1" speedFactor="0.83" vaporized=""/>
    <tripinfo id="61" depart="19.00" departLane="GH_C_0" departPos="4.10" departSpeed="0.00" departDelay="0.00" arrival="58.00" arrivalLane="GH_F_1" arrivalPos="30.00" arrivalSpeed="12.39" duration="39.00" routeLength="439.37" waitingTime="0.00" waitingCount="0" stopTime="0.00" timeLoss="4.41" rerouteNo="0" devices="tripinfo_61" vType="veh1" speedFactor="0.93" vaporized=""/>
    <tripinfo id="53" depart="36.00" departLane="GH_C_0" departPos="4.10" departSpeed="0.00" departDelay="0.00" arrival="72.00" arrivalLane="GH_F_0" arrivalPos="30.00" arrivalSpeed="14.02" duration="36.00" routeLength="439.37" waitingTime="0.00" waitingCount="0" stopTime="0.00" timeLoss="4.10" rerouteNo="0" devices="tripinfo_53" vType="veh1" speedFactor="1.02" vaporized=""/>
    <tripinfo id="67" depart="39.00" departLane="GH_C_0" departPos="4.10" departSpeed="0.00" departDelay="0.00" arrival="76.00" arrivalLane="GH_F_0" arrivalPos="30.00" arrivalSpeed="13.36" duration="37.00" routeLength="439.37" waitingTime="0.00" waitingCount="0" stopTime="0.00" timeLoss="4.69" rerouteNo="0" devices="tripinfo_67" vType="veh1" speedFactor="1.00" vaporized=""/>
    <tripinfo id="48" depart="41.00" departLane="GH_C_0" departPos="4.10" departSpeed="0.00" departDelay="1.00" arrival="77.00" arrivalLane="GH_F_1" arrivalPos="30.00" arrivalSpeed="13.66" duration="36.00" routeLength="439.37" waitingTime="0.00" waitingCount="0" stopTime="0.00" timeLoss="5.06" rerouteNo="0" devices="tripinfo_48" vType="veh1" speedFactor="1.02" vaporized=""/>
    <tripinfo id="8" depart="40.00" departLane="GH_A1_0" departPos="4.10" departSpeed="0.00" departDelay="0.00" arrival="81.00" arrivalLane="KL_G1_0" arrivalPos="30.00" arrivalSpeed="12.14" duration="41.00" routeLength="422.84" waitingTime="0.00" waitingCount="0" stopTime="0.00" timeLoss="6.54" rerouteNo="0" devices="tripinfo_8" vType="veh1" speedFactor="0.90" vaporized=""/>
    <tripinfo id="52" depart="47.00" departLane="GH_C_0" departPos="4.10" departSpeed="0.00" departDelay="6.00" arrival="81.00" arrivalLane="GH_F_1" arrivalPos="30.00" arrivalSpeed="14.69" duration="34.00" routeLength="439.37" waitingTime="0.00" waitingCount="0" stopTime="0.00" timeLoss="4.58" rerouteNo="0" devices="tripinfo_52" vType="veh1" speedFactor="1.08" vaporized=""/>
    <tripinfo id="105" depart="27.00" departLane="GH_G_0" departPos="4.10" departSpeed="0.00" departDelay="0.00" arrival="82.00" arrivalLane="GH_H2_0" arrivalPos="30.00" arrivalSpeed="11.38" duration="55.00" routeLength="582.60" waitingTime="0.00" waitingCount="0" stopTime="0.00" timeLoss="7.40" rerouteNo="0" devices="tripinfo_105" vType="veh1" speedFactor="0.90" vaporized=""/>
    <tripinfo id="47" depart="44.00" departLane="GH_C_0" departPos="4.10" departSpeed="0.00" departDelay="3.00" arrival="82.00" arrivalLane="GH_F_0" arrivalPos="30.00" arrivalSpeed="13.08" duration="38.00" routeLength="439.37" waitingTime="0.00" waitingCount="0" stopTime="0.00" timeLoss="5.24" rerouteNo="0" devices="tripinfo_47" vType="veh1" speedFactor="0.97" vaporized=""/>
    <tripinfo id="15" depart="48.00" departLane="GH_A1_0" departPos="4.10" departSpeed="0.00" departDelay="3.00" arrival="88.00" arrivalLane="KL_G1_0" arrivalPos="30.00" arrivalSpeed="11.91" duration="40.00" routeLength="422.84" waitingTime="0.00" waitingCount="0" stopTime="0.00" timeLoss="6.27" rerouteNo="0" devices="tripinfo_15" vType="veh1" speedFactor="0.91" vaporized=""/>
    <tripinfo id="60" depart="50.00" departLane="GH_C_0" departPos="4.10" departSpeed="0.00" departDelay="0.00" arrival="88.00" arrivalLane="GH_F_0" arrivalPos="30.00" arrivalSpeed="12.69" duration="38.00" routeLength="439.37" waitingTime="0.00" waitingCount="0" stopTime="0.00" timeLoss="4.89" rerouteNo="0" devices="tripinfo_60" vType="veh1" speedFactor="0.96" vaporized=""/>
    <tripinfo id="23" depart="54.00" departLane="GH_A1_0" departPos="4.10" departSpeed="0.00" departDelay="0.00" arrival="91.00" arrivalLane="KL_G1_0" arrivalPos="30.00" arrivalSpeed="13.90" duration="37.00" routeLength="422.84" waitingTime="0.00" waitingCount="0" stopTime="0.00" timeLoss="6.39" rerouteNo="0" devices="tripinfo_23" vType="veh1" speedFactor="1.03" vaporized=""/>
    <tripinfo id="19" depart="59.00" departLane="GH_A1_0" departPos="4.10" departSpeed="0.00" departDelay="0.00" arrival="96.00" arrivalLane="KL_G1_0" arrivalPos="30.00" arrivalSpeed="12.30" duration="37.00" routeLength="422.84" waitingTime="0.00" waitingCount="0" stopTime="0.00" timeLoss="6.44" rerouteNo="0" devices="tripinfo_19" vType="veh1" speedFactor="1.02" vaporized=""/>
    <tripinfo id="4500" depart="11.00" departLane="KL_G1_0" departPos="4.10" departSpeed="0.00" departDelay="0.00" arrival="97.00" arrivalLane="KL_B_0" arrivalPos="30.00" arrivalSpeed="12.63" duration="86.00" routeLength="691.48" waitingTime="25.00" waitingCount="1" stopTime="0.00" timeLoss="36.51" rerouteNo="0" devices="tripinfo_4500" vType="veh1" speedFactor="1.02" vaporized=""/>
    <tripinfo id="4516" depart="18.00" departLane="KL_G1_0" departPos="4.10" departSpeed="0.00" departDelay="0.00" arrival="97.00" arrivalLane="KL_B_1" arrivalPos="30.00" arrivalSpeed="15.13" duration="79.00" routeLength="694.48" waitingTime="23.00" waitingCount="1" stopTime="0.00" timeLoss="33.82" rerouteNo="0" devices="tripinfo_4516" vType="veh1" speedFactor="1.13" vaporized=""/>
    <tripinfo id="4446" depart="2.00" departLane="KL_E1_0" departPos="4.10" departSpeed="0.00" departDelay="0.00" arrival="98.00" arrivalLane="GH_C_0" arrivalPos="30.00" arrivalSpeed="14.24" duration="96.00" routeLength="291.29" waitingTime="66.00" waitingCount="1" stopTime="0.00" timeLoss="75.73" rerouteNo="0" devices="tripinfo_4446" vType="veh1" speedFactor="1.08" vaporized=""/>
    <tripinfo id="4467" depart="11.00" departLane="KL_E1_0" departPos="4.10" departSpeed="0.00" departDelay="0.00" arrival="98.00" arrivalLane="GH_C_1" arrivalPos="30.00" arrivalSpeed="15.26" duration="87.00" routeLength="291.29" waitingTime="56.00" waitingCount="1" stopTime="0.00" timeLoss="68.08" rerouteNo="0" devices="tripinfo_4467" vType="veh1" speedFactor="1.16" vaporized=""/>
    <tripinfo id="12071" depart="0.00" departLane="KC_A1_0" departPos="4.10" departSpeed="0.00" departDelay="0.00" arrival="99.00" arrivalLane="YB_E1_0" arrivalPos="30.00" arrivalSpeed="12.95" duration="99.00" routeLength="769.35" waitingTime="34.00" waitingCount="1" stopTime="0.00" timeLoss="46.75" rerouteNo="0" devices="tripinfo_12071" vType="veh1" speedFactor="1.06" vaporized=""/>
    <tripinfo id="4525" depart="3.00" departLane="KL_G1_0" departPos="4.10" departSpeed="0.00" departDelay="0.00" arrival="99.00" arrivalLane="YB_A2_1" arrivalPos="30.00" arrivalSpeed="14.18" duration="96.00" routeLength="720.56" waitingTime="33.00" waitingCount="1" stopTime="0.00" timeLoss="44.74" rerouteNo="0" devices="tripinfo_4525" vType="veh1" speedFactor="1.03" vaporized=""/>
    <tripinfo id="12073" depart="11.00" departLane="KC_A1_0" departPos="4.10" departSpeed="0.00" departDelay="0.00" arrival="99.00" arrivalLane="YB_E1_1" arrivalPos="30.00" arrivalSpeed="13.08" duration="88.00" routeLength="769.35" waitingTime="21.00" waitingCount="1" stopTime="0.00" timeLoss="30.77" rerouteNo="0" devices="tripinfo_12073" vType="veh1" speedFactor="0.97" vaporized=""/>
    <tripinfo id="4501" depart="26.00" departLane="KL_G1_0" departPos="4.10" departSpeed="0.00" departDelay="0.00" arrival="99.00" arrivalLane="KL_B_0" arrivalPos="30.00" arrivalSpeed="12.32" duration="73.00" routeLength="691.48" waitingTime="11.00" waitingCount="1" stopTime="0.00" timeLoss="23.58" rerouteNo="0" devices="tripinfo_4501" vType="veh1" speedFactor="1.02" vaporized=""/>
    <tripinfo id="4513" depart="32.00" departLane="KL_G1_0" departPos="4.10" departSpeed="0.00" departDelay="2.00" arrival="99.00" arrivalLane="KL_B_1" arrivalPos="30.00" arrivalSpeed="14.28" duration="67.00" routeLength="694.48" waitingTime="8.00" waitingCount="2" stopTime="0.00" timeLoss="20.10" rerouteNo="0" devices="tripinfo_4513" vType="veh1" speedFactor="1.09" vaporized=""/>
    <tripinfo id="12072" depart="2.00" departLane="KC_A1_0" departPos="4.10" departSpeed="0.00" departDelay="2.00" arrival="100.00" arrivalLane="YB_E1_2" arrivalPos="30.00" arrivalSpeed="12.23" duration="98.00" routeLength="769.35" waitingTime="28.00" waitingCount="1" stopTime="0.00" timeLoss="38.51" rerouteNo="0" devices="tripinfo_12072" vType="veh1" speedFactor="0.94" vaporized=""/>
    <tripinfo id="12040" depart="5.00" departLane="KC_A1_0" departPos="4.10" departSpeed="0.00" departDelay="1.00" arrival="101.00" arrivalLane="YB_E1_0" arrivalPos="30.00" arrivalSpeed="11.89" duration="96.00" routeLength="769.35" waitingTime="22.00" waitingCount="1" stopTime="0.00" timeLoss="33.46" rerouteNo="0" devices="tripinfo_12040" vType="veh1" speedFactor="0.89" vaporized=""/>
    <tripinfo id="129" depart="10.00" departLane="GH_G_0" departPos="4.10" departSpeed="0.00" departDelay="0.00" arrival="101.00" arrivalLane="KL_G1_0" arrivalPos="30.00" arrivalSpeed="12.59" duration="91.00" routeLength="650.61" waitingTime="32.00" waitingCount="1" stopTime="0.00" timeLoss="43.44" rerouteNo="0" devices="tripinfo_129" vType="veh1" speedFactor="0.99" vaporized=""/>
    <tripinfo id="4522" depart="14.00" departLane="KL_G1_0" departPos="4.10" departSpeed="0.00" departDelay="3.00" arrival="101.00" arrivalLane="YB_A2_1" arrivalPos="30.00" arrivalSpeed="13.52" duration="87.00" routeLength="720.56" waitingTime="24.00" waitingCount="1" stopTime="0.00" timeLoss="34.67" rerouteNo="0" devices="tripinfo_4522" vType="veh1" speedFactor="1.01" vaporized=""/>
    <tripinfo id="12042" depart="23.00" departLane="KC_A1_0" departPos="4.10" departSpeed="0.00" departDelay="0.00" arrival="101.00" arrivalLane="YB_E1_2" arrivalPos="30.00" arrivalSpeed="12.79" duration="78.00" routeLength="769.35" waitingTime="10.00" waitingCount="1" stopTime="0.00" timeLoss="22.87" rerouteNo="0" devices="tripinfo_12042" vType="veh1" speedFactor="1.01" vaporized=""/>
    <tripinfo id="12060" depart="28.00" departLane="KC_A1_0" departPos="4.10" departSpeed="0.00" departDelay="2.00" arrival="101.00" arrivalLane="YB_E1_1" arrivalPos="30.00" arrivalSpeed="15.87" duration="73.00" routeLength="769.35" waitingTime="14.00" waitingCount="1" stopTime="0.00" timeLoss="25.45" rerouteNo="0" devices="tripinfo_12060" vType="veh1" speedFactor="1.18" vaporized=""/>
    <tripinfo id="4460" depart="27.00" departLane="KL_E1_0" departPos="4.10" departSpeed="0.00" departDelay="0.00" arrival="101.00" arrivalLane="GH_C_0" arrivalPos="30.00" arrivalSpeed="13.14" duration="74.00" routeLength="291.29" waitingTime="39.00" waitingCount="1" stopTime="0.00" timeLoss="51.61" rerouteNo="0" devices="tripinfo_4460" vType="veh1" speedFactor="0.96" vaporized=""/>
    <tripinfo id="4498" depart="30.00" departLane="KL_G1_0" departPos="4.10" departSpeed="0.00" departDelay="0.00" arrival="101.00" arrivalLane="KL_B_1" arrivalPos="30.00" arrivalSpeed="14.16" duration="71.00" routeLength="694.48" waitingTime="9.00" waitingCount="1" stopTime="0.00" timeLoss="22.07" rerouteNo="0" devices="tripinfo_4498" vType="veh1" speedFactor="1.04" vaporized=""/>
    <tripinfo id="4451" depart="43.00" departLane="KL_E1_0" departPos="4.10" departSpeed="0.00" departDelay="0.00" arrival="102.00" arrivalLane="GH_C_1" arrivalPos="30.00" arrivalSpeed="12.62" duration="59.00" routeLength="291.29" waitingTime="24.00" waitingCount="1" stopTime="0.00" timeLoss="37.14" rerouteNo="0" devices="tripinfo_4451" vType="veh1" speedFactor="0.99" vaporized=""/>
    <tripinfo id="12049" depart="31.00" departLane="KC_A1_0" departPos="4.10" departSpeed="0.00" departDelay="4.00" arrival="103.00" arrivalLane="YB_E1_1" arrivalPos="30.00" arrivalSpeed="13.28" duration="72.00" routeLength="769.35" waitingTime="6.00" waitingCount="1" stopTime="0.00" timeLoss="17.95" rerouteNo="0" devices="tripinfo_12049" vType="veh1" speedFactor="1.04" vaporized=""/>
    <tripinfo id="4444" depart="46.00" departLane="KL_E1_0" departPos="4.10" departSpeed="0.00" departDelay="1.00" arrival="103.00" arrivalLane="GH_C_0" arrivalPos="30.00" arrivalSpeed="14.13" duration="57.00" routeLength="291.29" waitingTime="24.00" waitingCount="1" stopTime="0.00" timeLoss="36.70" rerouteNo="0" devices="tripinfo_4444" vType="veh1" speedFactor="1.04" vaporized=""/>
    <tripinfo id="25" depart="62.00" departLane="GH_A1_0" departPos="4.10" departSpeed="0.00" departDelay="2.00" arrival="103.00" arrivalLane="KL_G1_0" arrivalPos="30.00" arrivalSpeed="12.12" duration="41.00" routeLength="422.84" waitingTime="0.00" waitingCount="0" stopTime="0.00" timeLoss="6.22" rerouteNo="0" devices="tripinfo_25" vType="veh1" speedFactor="0.89" vaporized=""/>
    <tripinfo id="12067" depart="14.00" departLane="KC_A1_0" departPos="4.10" departSpeed="0.00" departDelay="2.00" arrival="104.00" arrivalLane="YB_E1_0" arrivalPos="30.00" arrivalSpeed="11.80" duration="90.00" routeLength="769.35" waitingTime="15.00" waitingCount="1" stopTime="0.00" timeLoss="26.82" rerouteNo="0" devices="tripinfo_12067" vType="veh1" speedFactor="0.89" vaporized=""/>
    <tripinfo id="4519" depart="15.00" departLane="KL_G1_0" departPos="4.10" departSpeed="0.00" departDelay="1.00" arrival="104.00" arrivalLane="YB_A2_0" arrivalPos="30.00" arrivalSpeed="11.97" duration="89.00" routeLength="720.56" waitingTime="17.00" waitingCount="1" stopTime="0.00" timeLoss="28.41" rerouteNo="0" devices="tripinfo_4519" vType="veh1" speedFactor="0.87" vaporized=""/>
    <tripinfo id="12041" depart="26.00" departLane="KC_A1_0" departPos="4.10" departSpeed="0.00" departDelay="0.00" arrival="104.00" arrivalLane="YB_E1_1" arrivalPos="30.00" arrivalSpeed="12.40" duration="78.00" routeLength="769.35" waitingTime="9.00" waitingCount="1" stopTime="0.00" timeLoss="20.93" rerouteNo="0" devices="tripinfo_12041" vType="veh1" speedFactor="0.97" vaporized=""/>
    <tripinfo id="4523" depart="35.00" departLane="KL_G1_0" departPos="4.10" departSpeed="0.00" departDelay="0.00" arrival="104.00" arrivalLane="YB_A2_1" arrivalPos="30.00" arrivalSpeed="16.20" duration="69.00" routeLength="720.56" waitingTime="11.00" waitingCount="1" stopTime="0.00" timeLoss="24.10" rerouteNo="0" devices="tripinfo_4523" vType="veh1" speedFactor="1.17" vaporized=""/>
    <tripinfo id="4472" depart="59.00" departLane="KL_E1_0" departPos="4.10" departSpeed="0.00" departDelay="0.00" arrival="104.00" arrivalLane="GH_C_1" arrivalPos="30.00" arrivalSpeed="12.09" duration="45.00" routeLength="291.29" waitingTime="12.00" waitingCount="1" stopTime="0.00" timeLoss="24.23" rerouteNo="0" devices="tripinfo_4472" vType="veh1" speedFactor="1.02" vaporized=""/>
    <tripinfo id="12047" depart="33.00" departLane="KC_A1_0" departPos="4.10" departSpeed="0.00" departDelay="0.00" arrival="106.00" arrivalLane="YB_E1_0" arrivalPos="30.00" arrivalSpeed="11.01" duration="73.00" routeLength="769.35" waitingTime="0.00" waitingCount="0" stopTime="0.00" timeLoss="7.27" rerouteNo="0" devices="tripinfo_12047" vType="veh1" speedFactor="0.85" vaporized=""/>
    <tripinfo id="4529" depart="37.00" departLane="KL_G1_0" departPos="4.10" departSpeed="0.00" departDelay="1.00" arrival="106.00" arrivalLane="YB_A2_0" arrivalPos="30.00" arrivalSpeed="14.92" duration="69.00" routeLength="720.56" waitingTime="8.00" waitingCount="1" stopTime="0.00" timeLoss="20.85" rerouteNo="0" devices="tripinfo_4529" vType="veh1" speedFactor="1.10" vaporized=""/>
    <tripinfo id="4443" depart="49.00" departLane="KL_E1_0" departPos="4.10" departSpeed="0.00" departDelay="0.00" arrival="106.00" arrivalLane="GH_C_2" arrivalPos="30.00" arrivalSpeed="11.64" duration="57.00" routeLength="291.29" waitingTime="20.00" waitingCount="1" stopTime="0.00" timeLoss="36.91" rerouteNo="0" devices="tripinfo_4443" vType="veh1" speedFactor="1.06" vaporized=""/>
    <tripinfo id="4514" depart="56.00" departLane="KL_G1_0" departPos="4.10" departSpeed="0.00" departDelay="0.00" arrival="106.00" arrivalLane="KL_B_1" arrivalPos="30.00" arrivalSpeed="15.06" duration="50.00" routeLength="694.48" waitingTime="0.00" waitingCount="0" stopTime="0.00" timeLoss="6.08" rerouteNo="0" devices="tripinfo_4514" vType="veh1" speedFactor="1.15" vaporized=""/>
    <tripinfo id="6" depart="65.00" departLane="GH_A1_0" departPos="4.10" departSpeed="0.00" departDelay="1.00" arrival="106.00" arrivalLane="KL_G1_0" arrivalPos="30.00" arrivalSpeed="11.65" duration="41.00" routeLength="422.84" waitingTime="0.00" waitingCount="0" stopTime="0.00" timeLoss="6.53" rerouteNo="0" devices="tripinfo_6" vType="veh1" speedFactor="0.91" vaporized=""/>
    <tripinfo id="4533" depart="38.00" departLane="KL_G1_0" departPos="4.10" departSpeed="0.00" departDelay="1.00" arrival="108.00" arrivalLane="YB_A2_0" arrivalPos="30.00" arrivalSpeed="12.91" duration="70.00" routeLength="720.56" waitingTime="4.00" waitingCount="1" stopTime="0.00" timeLoss="17.54" rerouteNo="0" devices="tripinfo_4533" vType="veh1" speedFactor="1.00" vaporized=""/>
    <tripinfo id="4511" depart="50.00" departLane="KL_G1_0" departPos="4.10" departSpeed="0.00" departDelay="0.00" arrival="108.00" arrivalLane="KL_B_0" arrivalPos="30.00" arrivalSpeed="13.03" duration="58.00" routeLength="691.48" waitingTime="0.00" waitingCount="0" stopTime="0.00" timeLoss="6.40" rerouteNo="0" devices="tripinfo_4511" vType="veh1" speedFactor="0.98" vaporized=""/>
    <tripinfo id="4438" depart="56.00" departLane="KL_E1_0" departPos="4.10" departSpeed="0.00" departDelay="0.00" arrival="108.00" arrivalLane="GH_C_1" arrivalPos="30.00" arrivalSpeed="13.13" duration="52.00" routeLength="291.29" waitingTime="15.00" waitingCount="1" stopTime="0.00" timeLoss="30.20" rerouteNo="0" devices="tripinfo_4438" vType="veh1" speedFactor="0.97" vaporized=""/>
    <tripinfo id="16" depart="68.00" departLane="GH_A1_0" departPos="4.10" departSpeed="0.00" departDelay="4.00" arrival="108.00" arrivalLane="KL_G1_1" arrivalPos="30.00" arrivalSpeed="14.61" duration="40.00" routeLength="422.84" waitingTime="0.00" waitingCount="0" stopTime="0.00" timeLoss="11.45" rerouteNo="0" devices="tripinfo_16" vType="veh1" speedFactor="1.12" vaporized=""/>
    <tripinfo id="64" depart="73.00" departLane="GH_C_0" departPos="4.10" departSpeed="0.00" departDelay="0.00" arrival="109.00" arrivalLane="GH_F_0" arrivalPos="30.00" arrivalSpeed="14.29" duration="36.00" routeLength="439.37" waitingTime="0.00" waitingCount="0" stopTime="0.00" timeLoss="4.60" rerouteNo="0" devices="tripinfo_64" vType="veh1" speedFactor="1.03" vaporized=""/>
    <tripinfo id="127" depart="57.00" departLane="GH_G_0" departPos="4.10" departSpeed="0.00" departDelay="0.00" arrival="110.00" arrivalLane="KL_G1_1" arrivalPos="30.00" arrivalSpeed="13.74" duration="53.00" routeLength="650.61" waitingTime="0.00" waitingCount="0" stopTime="0.00" timeLoss="5.35" rerouteNo="0" devices="tripinfo_127" vType="veh1" speedFactor="1.00" vaporized=""/>
    <tripinfo id="4527" depart="44.00" departLane="KL_G1_0" departPos="4.10" departSpeed="0.00" departDelay="0.00" arrival="111.00" arrivalLane="YB_A2_0" arrivalPos="30.00" arrivalSpeed="10.98" duration="67.00" routeLength="720.56" waitingTime="0.00" waitingCount="0" stopTime="0.00" timeLoss="7.20" rerouteNo="0" devices="tripinfo_4527" vType="veh1" speedFactor="0.88" vaporized=""/>
    <tripinfo id="12045" depart="50.00" departLane="KC_A1_0" departPos="4.10" departSpeed="0.00" departDelay="0.00" arrival="112.00" arrivalLane="YB_E1_0" arrivalPos="30.00" arrivalSpeed="13.52" duration="62.00" routeLength="769.35" waitingTime="0.00" waitingCount="0" stopTime="0.00" timeLoss="5.51" rerouteNo="0" devices="tripinfo_12045" vType="veh1" speedFactor="0.98" vaporized=""/>
    <tripinfo id="123" depart="59.00" departLane="GH_G_0" departPos="4.10" departSpeed="0.00" departDelay="1.00" arrival="112.00" arrivalLane="KL_G1_1" arrivalPos="30.00" arrivalSpeed="13.37" duration="53.00" routeLength="650.61" waitingTime="0.00" waitingCount="0" stopTime="0.00" timeLoss="5.78" rerouteNo="0" devices="tripinfo_123" vType="veh1" speedFactor="1.01" vaporized=""/>
    <tripinfo id="12032" depart="54.00" departLane="KC_A1_0" departPos="4.10" departSpeed="0.00" departDelay="0.00" arrival="113.00" arrivalLane="KC_B_0" arrivalPos="30.00" arrivalSpeed="11.73" duration="59.00" routeLength="716.77" waitingTime="0.00" waitingCount="0" stopTime="0.00" timeLoss="6.66" rerouteNo="0" devices="tripinfo_12032" vType="veh1" speedFactor="1.00" vaporized=""/>
    <tripinfo id="46" depart="77.00" departLane="GH_C_0" departPos="4.10" departSpeed="0.00" departDelay="0.00" arrival="116.00" arrivalLane="GH_F_0" arrivalPos="30.00" arrivalSpeed="12.07" duration="39.00" routeLength="439.37" waitingTime="0.00" waitingCount="0" stopTime="0.00" timeLoss="4.62" rerouteNo="0" devices="tripinfo_46" vType="veh1" speedFactor="0.93" vaporized=""/>
    <tripinfo id="12086" depart="53.00" departLane="KC_E1_0" departPos="4.10" departSpeed="0.00" departDelay="0.00" arrival="117.00" arrivalLane="KC_F_0" arrivalPos="30.00" arrivalSpeed="12.97" duration="64.00" routeLength="845.81" waitingTime="0.00" waitingCount="0" stopTime="0.00" timeLoss="7.15" rerouteNo="0" devices="tripinfo_12086" vType="veh1" speedFactor="1.09" vaporized=""/>
    <tripinfo id="12" depart="70.00" departLane="GH_A1_0" departPos="4.10" departSpeed="0.00" departDelay="2.00" arrival="117.00" arrivalLane="KL_G1_0" arrivalPos="30.00" arrivalSpeed="10.48" duration="47.00" routeLength="422.84" waitingTime="3.00" waitingCount="1" stopTime="0.00" timeLoss="17.58" rerouteNo="0" devices="tripinfo_12" vType="veh1" speedFactor="1.06" vaporized=""/>
    <tripinfo id="65" depart="83.00" departLane="GH_C_0" departPos="4.10" departSpeed="0.00" departDelay="0.00" arrival="117.00" arrivalLane="GH_F_1" arrivalPos="30.00" arrivalSpeed="14.82" duration="34.00" routeLength="439.37" waitingTime="0.00" waitingCount="0" stopTime="0.00" timeLoss="4.65" rerouteNo="0" devices="tripinfo_65" vType="veh1" speedFactor="1.10" vaporized=""/>
    <tripinfo id="4459" depart="100.00" departLane="KL_E1_0" departPos="4.10" departSpeed="0.00" departDelay="0.00" arrival="124.00" arrivalLane="GH_C_0" arrivalPos="30.00" arrivalSpeed="14.47" duration="24.00" routeLength="291.29" waitingTime="0.00" waitingCount="0" stopTime="0.00" timeLoss="3.39" rerouteNo="0" devices="tripinfo_4459" vType="veh1" speedFactor="1.06" vaporized=""/>
    <tripinfo id="104" depart="87.00" departLane="GH_G_0" departPos="4.10" departSpeed="0.00" departDelay="0.00" arrival="131.00" arrivalLane="GH_H2_0" arrivalPos="30.00" arrivalSpeed="13.63" duration="44.00" routeLength="582.60" waitingTime="0.00" waitingCount="0" stopTime="0.00" timeLoss="8.20" rerouteNo="0" devices="tripinfo_104" vType="veh1" speedFactor="1.18" vaporized=""/>
    <tripinfo id="5" depart="93.00" departLane="GH_A1_0" departPos="4.10" departSpeed="0.00" departDelay="0.00" arrival="131.00" arrivalLane="KL_G1_0" arrivalPos="30.00" arrivalSpeed="12.95" duration="38.00" routeLength="422.84" waitingTime="0.00" waitingCount="0" stopTime="0.00" timeLoss="6.62" rerouteNo="0" devices="tripinfo_5" vType="veh1" speedFactor="0.99" vaporized=""/>
    <tripinfo id="4" depart="103.00" departLane="GH_A1_0" departPos="4.10" departSpeed="0.00" departDelay="0.00" arrival="140.00" arrivalLane="KL_G1_0" arrivalPos="30.00" arrivalSpeed="12.47" duration="37.00" routeLength="422.84" waitingTime="0.00" waitingCount="0" stopTime="0.00" timeLoss="6.61" rerouteNo="0" devices="tripinfo_4" vType="veh1" speedFactor="1.03" vaporized=""/>
    <tripinfo id="24" depart="105.00" departLane="GH_A1_0" departPos="4.10" departSpeed="0.00" departDelay="0.00" arrival="144.00" arrivalLane="KL_G1_1" arrivalPos="30.00" arrivalSpeed="11.97" duration="39.00" routeLength="422.84" waitingTime="0.00" waitingCount="0" stopTime="0.00" timeLoss="8.16" rerouteNo="0" devices="tripinfo_24" vType="veh1" speedFactor="1.01" vaporized=""/>
    <tripinfo id="22" depart="108.00" departLane="GH_A1_0" departPos="4.10" departSpeed="0.00" departDelay="0.00" arrival="148.00" arrivalLane="KL_G1_0" arrivalPos="30.00" arrivalSpeed="12.94" duration="40.00" routeLength="422.84" waitingTime="0.00" waitingCount="0" stopTime="0.00" timeLoss="7.30" rerouteNo="0" devices="tripinfo_22" vType="veh1" speedFactor="0.96" vaporized=""/>
    <tripinfo id="9" depart="112.00" departLane="GH_A1_0" departPos="4.10" departSpeed="0.00" departDelay="0.00" arrival="150.00" arrivalLane="KL_G1_0" arrivalPos="30.00" arrivalSpeed="12.61" duration="38.00" routeLength="422.84" waitingTime="0.00" waitingCount="0" stopTime="0.00" timeLoss="7.05" rerouteNo="0" devices="tripinfo_9" vType="veh1" speedFactor="1.02" vaporized=""/>
    <tripinfo id="27" depart="114.00" departLane="GH_A1_0" departPos="4.10" departSpeed="0.00" departDelay="1.00" arrival="152.00" arrivalLane="KL_G1_0" arrivalPos="30.00" arrivalSpeed="13.80" duration="38.00" routeLength="422.84" waitingTime="0.00" waitingCount="0" stopTime="0.00" timeLoss="9.66" rerouteNo="0" devices="tripinfo_27" vType="veh1" speedFactor="1.11" vaporized=""/>
    <tripinfo id="3" depart="126.00" departLane="GH_A1_0" departPos="4.10" departSpeed="0.00" departDelay="0.00" arrival="160.00" arrivalLane="KL_G1_0" arrivalPos="30.00" arrivalSpeed="13.11" duration="34.00" routeLength="422.84" waitingTime="0.00" waitingCount="0" stopTime="0.00" timeLoss="7.15" rerouteNo="0" devices="tripinfo_3" vType="veh1" speedFactor="1.18" vaporized=""/>
    <tripinfo id="8682" depart="126.00" departLane="YB_C_0" departPos="4.10" departSpeed="0.00" departDelay="0.00" arrival="166.00" arrivalLane="KC_E1_0" arrivalPos="30.00" arrivalSpeed="11.78" duration="40.00" routeLength="426.29" waitingTime="0.00" waitingCount="0" stopTime="0.00" timeLoss="5.35" rerouteNo="0" devices="tripinfo_8682" vType="veh1" speedFactor="0.91" vaporized=""/>
    <tripinfo id="8709" depart="10.00" departLane="YB_E1_0" departPos="4.10" departSpeed="0.00" departDelay="0.00" arrival="186.00" arrivalLane="KL_E1_0" arrivalPos="30.00" arrivalSpeed="11.15" duration="176.00" routeLength="554.53" waitingTime="116.00" waitingCount="2" stopTime="0.00" timeLoss="130.20" rerouteNo="0" devices="tripinfo_8709" vType="veh1" speedFactor="0.88" vaporized=""/>
    <tripinfo id="8653" depart="32.00" departLane="YB_A2_0" departPos="4.10" departSpeed="0.00" departDelay="0.00" arrival="186.00" arrivalLane="YB_B_0" arrivalPos="30.00" arrivalSpeed="12.18" duration="154.00" routeLength="487.06" waitingTime="104.00" waitingCount="1" stopTime="0.00" timeLoss="113.51" rerouteNo="0" devices="tripinfo_8653" vType="veh1" speedFactor="0.90" vaporized=""/>
    <tripinfo id="8712" depart="33.00" departLane="YB_E1_0" departPos="4.10" departSpeed="0.00" departDelay="0.00" arrival="186.00" arrivalLane="KL_E1_1" arrivalPos="30.00" arrivalSpeed="11.86" duration="153.00" routeLength="554.49" waitingTime="93.00" waitingCount="2" stopTime="0.00" timeLoss="106.83" rerouteNo="0" devices="tripinfo_8712" vType="veh1" speedFactor="0.88" vaporized=""/>
    <tripinfo id="8711" depart="48.00" departLane="YB_E1_0" departPos="4.10" departSpeed="0.00" departDelay="0.00" arrival="186.00" arrivalLane="KL_E1_2" arrivalPos="30.00" arrivalSpeed="12.04" duration="138.00" routeLength="554.49" waitingTime="84.00" waitingCount="1" stopTime="0.00" timeLoss="96.59" rerouteNo="0" devices="tripinfo_8711" vType="veh1" speedFactor="0.97" vaporized=""/>